+ 0.0288816 /NodeList/5/DeviceList/0/$ns3::CsmaNetDevice/TxQueue/Enqueue ns3::EthernetHeader ( length/type=0x800, source=00:00:00:00:00:08, destination=01:00:5e:00:00:09) ns3::Ipv4Header (tos 0x0 DSCP Default ECN Not-ECT ttl 1 id 0 protocol 17 offset (bytes) 0 flags [none] length: 52 10.1.4.2 > 224.0.0.9) ns3::UdpHeader (length: 32 520 > 520) ns3::RipHeader (command 1 | prefix 0.0.0.0/0 Metric 16 Tag 0 Next Hop 0.0.0.0) ns3::EthernetTrailer (fcs=0)
- 0.0288816 /NodeList/5/DeviceList/0/$ns3::CsmaNetDevice/TxQueue/Dequeue ns3::EthernetHeader ( length/type=0x800, source=00:00:00:00:00:08, destination=01:00:5e:00:00:09) ns3::Ipv4Header (tos 0x0 DSCP Default ECN Not-ECT ttl 1 id 0 protocol 17 offset (bytes) 0 flags [none] length: 52 10.1.4.2 > 224.0.0.9) ns3::UdpHeader (length: 32 520 > 520) ns3::RipHeader (command 1 | prefix 0.0.0.0/0 Metric 16 Tag 0 Next Hop 0.0.0.0) ns3::EthernetTrailer (fcs=0)
+ 0.0288816 /NodeList/5/DeviceList/1/$ns3::CsmaNetDevice/TxQueue/Enqueue ns3::EthernetHeader ( length/type=0x800, source=00:00:00:00:00:0d, destination=01:00:5e:00:00:09) ns3::Ipv4Header (tos 0x0 DSCP Default ECN Not-ECT ttl 1 id 0 protocol 17 offset (bytes) 0 flags [none] length: 52 10.1.7.1 > 224.0.0.9) ns3::UdpHeader (length: 32 520 > 520) ns3::RipHeader (command 1 | prefix 0.0.0.0/0 Metric 16 Tag 0 Next Hop 0.0.0.0) ns3::EthernetTrailer (fcs=0)
- 0.0288816 /NodeList/5/DeviceList/1/$ns3::CsmaNetDevice/TxQueue/Dequeue ns3::EthernetHeader ( length/type=0x800, source=00:00:00:00:00:0d, destination=01:00:5e:00:00:09) ns3::Ipv4Header (tos 0x0 DSCP Default ECN Not-ECT ttl 1 id 0 protocol 17 offset (bytes) 0 flags [none] length: 52 10.1.7.1 > 224.0.0.9) ns3::UdpHeader (length: 32 520 > 520) ns3::RipHeader (command 1 | prefix 0.0.0.0/0 Metric 16 Tag 0 Next Hop 0.0.0.0) ns3::EthernetTrailer (fcs=0)
r 0.0309936 /NodeList/2/DeviceList/2/$ns3::CsmaNetDevice/MacRx ns3::EthernetHeader ( length/type=0x800, source=00:00:00:00:00:08, destination=01:00:5e:00:00:09) ns3::Ipv4Header (tos 0x0 DSCP Default ECN Not-ECT ttl 1 id 0 protocol 17 offset (bytes) 0 flags [none] length: 52 10.1.4.2 > 224.0.0.9) ns3::UdpHeader (length: 32 520 > 520) ns3::RipHeader (command 1 | prefix 0.0.0.0/0 Metric 16 Tag 0 Next Hop 0.0.0.0) ns3::EthernetTrailer (fcs=0)
r 0.0309936 /NodeList/6/DeviceList/1/$ns3::CsmaNetDevice/MacRx ns3::EthernetHeader ( length/type=0x800, source=00:00:00:00:00:0d, destination=01:00:5e:00:00:09) ns3::Ipv4Header (tos 0x0 DSCP Default ECN Not-ECT ttl 1 id 0 protocol 17 offset (bytes) 0 flags [none] length: 52 10.1.7.1 > 224.0.0.9) ns3::UdpHeader (length: 32 520 > 520) ns3::RipHeader (command 1 | prefix 0.0.0.0/0 Metric 16 Tag 0 Next Hop 0.0.0.0) ns3::EthernetTrailer (fcs=0)
+ 0.0339936 /NodeList/2/DeviceList/2/$ns3::CsmaNetDevice/TxQueue/Enqueue ns3::EthernetHeader ( length/type=0x806, source=00:00:00:00:00:07, destination=ff:ff:ff:ff:ff:ff) ns3::ArpHeader (request source mac: 00-06-00:00:00:00:00:07 source ipv4: 10.1.4.1 dest ipv4: 10.1.4.2) Payload (size=18) ns3::EthernetTrailer (fcs=0)
- 0.0339936 /NodeList/2/DeviceList/2/$ns3::CsmaNetDevice/TxQueue/Dequeue ns3::EthernetHeader ( length/type=0x806, source=00:00:00:00:00:07, destination=ff:ff:ff:ff:ff:ff) ns3::ArpHeader (request source mac: 00-06-00:00:00:00:00:07 source ipv4: 10.1.4.1 dest ipv4: 10.1.4.2) Payload (size=18) ns3::EthernetTrailer (fcs=0)
r 0.036096 /NodeList/5/DeviceList/0/$ns3::CsmaNetDevice/MacRx ns3::EthernetHeader ( length/type=0x806, source=00:00:00:00:00:07, destination=ff:ff:ff:ff:ff:ff) ns3::ArpHeader (request source mac: 00-06-00:00:00:00:00:07 source ipv4: 10.1.4.1 dest ipv4: 10.1.4.2) Payload (size=18) ns3::EthernetTrailer (fcs=0)
+ 0.036096 /NodeList/5/DeviceList/0/$ns3::CsmaNetDevice/TxQueue/Enqueue ns3::EthernetHeader ( length/type=0x806, source=00:00:00:00:00:08, destination=00:00:00:00:00:07) ns3::ArpHeader (reply source mac: 00-06-00:00:00:00:00:08 source ipv4: 10.1.4.2 dest mac: 00-06-00:00:00:00:00:07 dest ipv4: 10.1.4.1) Payload (size=18) ns3::EthernetTrailer (fcs=0)
- 0.036096 /NodeList/5/DeviceList/0/$ns3::CsmaNetDevice/TxQueue/Dequeue ns3::EthernetHeader ( length/type=0x806, source=00:00:00:00:00:08, destination=00:00:00:00:00:07) ns3::ArpHeader (reply source mac: 00-06-00:00:00:00:00:08 source ipv4: 10.1.4.2 dest mac: 00-06-00:00:00:00:00:07 dest ipv4: 10.1.4.1) Payload (size=18) ns3::EthernetTrailer (fcs=0)
+ 0.0369936 /NodeList/6/DeviceList/1/$ns3::CsmaNetDevice/TxQueue/Enqueue ns3::EthernetHeader ( length/type=0x806, source=00:00:00:00:00:0e, destination=ff:ff:ff:ff:ff:ff) ns3::ArpHeader (request source mac: 00-06-00:00:00:00:00:0e source ipv4: 10.1.7.2 dest ipv4: 10.1.7.1) Payload (size=18) ns3::EthernetTrailer (fcs=0)
- 0.0369936 /NodeList/6/DeviceList/1/$ns3::CsmaNetDevice/TxQueue/Dequeue ns3::EthernetHeader ( length/type=0x806, source=00:00:00:00:00:0e, destination=ff:ff:ff:ff:ff:ff) ns3::ArpHeader (request source mac: 00-06-00:00:00:00:00:0e source ipv4: 10.1.7.2 dest ipv4: 10.1.7.1) Payload (size=18) ns3::EthernetTrailer (fcs=0)
r 0.0381994 /NodeList/2/DeviceList/2/$ns3::CsmaNetDevice/MacRx ns3::EthernetHeader ( length/type=0x806, source=00:00:00:00:00:08, destination=00:00:00:00:00:07) ns3::ArpHeader (reply source mac: 00-06-00:00:00:00:00:08 source ipv4: 10.1.4.2 dest mac: 00-06-00:00:00:00:00:07 dest ipv4: 10.1.4.1) Payload (size=18) ns3::EthernetTrailer (fcs=0)
+ 0.0381994 /NodeList/2/DeviceList/2/$ns3::CsmaNetDevice/TxQueue/Enqueue ns3::EthernetHeader ( length/type=0x800, source=00:00:00:00:00:07, destination=00:00:00:00:00:08) ns3::Ipv4Header (tos 0x0 DSCP Default ECN Not-ECT ttl 255 id 0 protocol 17 offset (bytes) 0 flags [none] length: 92 10.1.4.1 > 10.1.4.2) ns3::UdpHeader (length: 72 520 > 520) ns3::RipHeader (command 2 | prefix 10.1.1.0/24 Metric 1 Tag 0 Next Hop 0.0.0.0 | prefix 10.1.2.0/24 Metric 1 Tag 0 Next Hop 0.0.0.0 | prefix 10.1.4.0/24 Metric 16 Tag 0 Next Hop 0.0.0.0) ns3::EthernetTrailer (fcs=0)
- 0.0381994 /NodeList/2/DeviceList/2/$ns3::CsmaNetDevice/TxQueue/Dequeue ns3::EthernetHeader ( length/type=0x800, source=00:00:00:00:00:07, destination=00:00:00:00:00:08) ns3::Ipv4Header (tos 0x0 DSCP Default ECN Not-ECT ttl 255 id 0 protocol 17 offset (bytes) 0 flags [none] length: 92 10.1.4.1 > 10.1.4.2) ns3::UdpHeader (length: 72 520 > 520) ns3::RipHeader (command 2 | prefix 10.1.1.0/24 Metric 1 Tag 0 Next Hop 0.0.0.0 | prefix 10.1.2.0/24 Metric 1 Tag 0 Next Hop 0.0.0.0 | prefix 10.1.4.0/24 Metric 16 Tag 0 Next Hop 0.0.0.0) ns3::EthernetTrailer (fcs=0)
r 0.039096 /NodeList/5/DeviceList/1/$ns3::CsmaNetDevice/MacRx ns3::EthernetHeader ( length/type=0x806, source=00:00:00:00:00:0e, destination=ff:ff:ff:ff:ff:ff) ns3::ArpHeader (request source mac: 00-06-00:00:00:00:00:0e source ipv4: 10.1.7.2 dest ipv4: 10.1.7.1) Payload (size=18) ns3::EthernetTrailer (fcs=0)
+ 0.039096 /NodeList/5/DeviceList/1/$ns3::CsmaNetDevice/TxQueue/Enqueue ns3::EthernetHeader ( length/type=0x806, source=00:00:00:00:00:0d, destination=00:00:00:00:00:0e) ns3::ArpHeader (reply source mac: 00-06-00:00:00:00:00:0d source ipv4: 10.1.7.1 dest mac: 00-06-00:00:00:00:00:0e dest ipv4: 10.1.7.2) Payload (size=18) ns3::EthernetTrailer (fcs=0)
- 0.039096 /NodeList/5/DeviceList/1/$ns3::CsmaNetDevice/TxQueue/Dequeue ns3::EthernetHeader ( length/type=0x806, source=00:00:00:00:00:0d, destination=00:00:00:00:00:0e) ns3::ArpHeader (reply source mac: 00-06-00:00:00:00:00:0d source ipv4: 10.1.7.1 dest mac: 00-06-00:00:00:00:00:0e dest ipv4: 10.1.7.2) Payload (size=18) ns3::EthernetTrailer (fcs=0)
r 0.0403764 /NodeList/5/DeviceList/0/$ns3::CsmaNetDevice/MacRx ns3::EthernetHeader ( length/type=0x800, source=00:00:00:00:00:07, destination=00:00:00:00:00:08) ns3::Ipv4Header (tos 0x0 DSCP Default ECN Not-ECT ttl 255 id 0 protocol 17 offset (bytes) 0 flags [none] length: 92 10.1.4.1 > 10.1.4.2) ns3::UdpHeader (length: 72 520 > 520) ns3::RipHeader (command 2 | prefix 10.1.1.0/24 Metric 1 Tag 0 Next Hop 0.0.0.0 | prefix 10.1.2.0/24 Metric 1 Tag 0 Next Hop 0.0.0.0 | prefix 10.1.4.0/24 Metric 16 Tag 0 Next Hop 0.0.0.0) ns3::EthernetTrailer (fcs=0)
r 0.0411994 /NodeList/6/DeviceList/1/$ns3::CsmaNetDevice/MacRx ns3::EthernetHeader ( length/type=0x806, source=00:00:00:00:00:0d, destination=00:00:00:00:00:0e) ns3::ArpHeader (reply source mac: 00-06-00:00:00:00:00:0d source ipv4: 10.1.7.1 dest mac: 00-06-00:00:00:00:00:0e dest ipv4: 10.1.7.2) Payload (size=18) ns3::EthernetTrailer (fcs=0)
+ 0.0411994 /NodeList/6/DeviceList/1/$ns3::CsmaNetDevice/TxQueue/Enqueue ns3::EthernetHeader ( length/type=0x800, source=00:00:00:00:00:0e, destination=00:00:00:00:00:0d) ns3::Ipv4Header (tos 0x0 DSCP Default ECN Not-ECT ttl 255 id 0 protocol 17 offset (bytes) 0 flags [none] length: 112 10.1.7.2 > 10.1.7.1) ns3::UdpHeader (length: 92 520 > 520) ns3::RipHeader (command 2 | prefix 10.1.5.0/24 Metric 1 Tag 0 Next Hop 0.0.0.0 | prefix 10.1.7.0/24 Metric 16 Tag 0 Next Hop 0.0.0.0 | prefix 10.1.8.0/24 Metric 1 Tag 0 Next Hop 0.0.0.0 | prefix 10.1.10.0/24 Metric 1 Tag 0 Next Hop 0.0.0.0) ns3::EthernetTrailer (fcs=0)
- 0.0411994 /NodeList/6/DeviceList/1/$ns3::CsmaNetDevice/TxQueue/Dequeue ns3::EthernetHeader ( length/type=0x800, source=00:00:00:00:00:0e, destination=00:00:00:00:00:0d) ns3::Ipv4Header (tos 0x0 DSCP Default ECN Not-ECT ttl 255 id 0 protocol 17 offset (bytes) 0 flags [none] length: 112 10.1.7.2 > 10.1.7.1) ns3::UdpHeader (length: 92 520 > 520) ns3::RipHeader (command 2 | prefix 10.1.5.0/24 Metric 1 Tag 0 Next Hop 0.0.0.0 | prefix 10.1.7.0/24 Metric 16 Tag 0 Next Hop 0.0.0.0 | prefix 10.1.8.0/24 Metric 1 Tag 0 Next Hop 0.0.0.0 | prefix 10.1.10.0/24 Metric 1 Tag 0 Next Hop 0.0.0.0) ns3::EthernetTrailer (fcs=0)
r 0.0434084 /NodeList/5/DeviceList/1/$ns3::CsmaNetDevice/MacRx ns3::EthernetHeader ( length/type=0x800, source=00:00:00:00:00:0e, destination=00:00:00:00:00:0d) ns3::Ipv4Header (tos 0x0 DSCP Default ECN Not-ECT ttl 255 id 0 protocol 17 offset (bytes) 0 flags [none] length: 112 10.1.7.2 > 10.1.7.1) ns3::UdpHeader (length: 92 520 > 520) ns3::RipHeader (command 2 | prefix 10.1.5.0/24 Metric 1 Tag 0 Next Hop 0.0.0.0 | prefix 10.1.7.0/24 Metric 16 Tag 0 Next Hop 0.0.0.0 | prefix 10.1.8.0/24 Metric 1 Tag 0 Next Hop 0.0.0.0 | prefix 10.1.10.0/24 Metric 1 Tag 0 Next Hop 0.0.0.0) ns3::EthernetTrailer (fcs=0)
+ 0.206116 /NodeList/9/DeviceList/0/$ns3::CsmaNetDevice/TxQueue/Enqueue ns3::EthernetHeader ( length/type=0x800, source=00:00:00:00:00:14, destination=01:00:5e:00:00:09) ns3::Ipv4Header (tos 0x0 DSCP Default ECN Not-ECT ttl 1 id 0 protocol 17 offset (bytes) 0 flags [none] length: 52 10.1.10.2 > 224.0.0.9) ns3::UdpHeader (length: 32 520 > 520) ns3::RipHeader (command 1 | prefix 0.0.0.0/0 Metric 16 Tag 0 Next Hop 0.0.0.0) ns3::EthernetTrailer (fcs=0)
- 0.206116 /NodeList/9/DeviceList/0/$ns3::CsmaNetDevice/TxQueue/Dequeue ns3::EthernetHeader ( length/type=0x800, source=00:00:00:00:00:14, destination=01:00:5e:00:00:09) ns3::Ipv4Header (tos 0x0 DSCP Default ECN Not-ECT ttl 1 id 0 protocol 17 offset (bytes) 0 flags [none] length: 52 10.1.10.2 > 224.0.0.9) ns3::UdpHeader (length: 32 520 > 520) ns3::RipHeader (command 1 | prefix 0.0.0.0/0 Metric 16 Tag 0 Next Hop 0.0.0.0) ns3::EthernetTrailer (fcs=0)
+ 0.206116 /NodeList/9/DeviceList/1/$ns3::CsmaNetDevice/TxQueue/Enqueue ns3::EthernetHeader ( length/type=0x800, source=00:00:00:00:00:18, destination=01:00:5e:00:00:09) ns3::Ipv4Header (tos 0x0 DSCP Default ECN Not-ECT ttl 1 id 0 protocol 17 offset (bytes) 0 flags [none] length: 52 10.1.12.2 > 224.0.0.9) ns3::UdpHeader (length: 32 520 > 520) ns3::RipHeader (command 1 | prefix 0.0.0.0/0 Metric 16 Tag 0 Next Hop 0.0.0.0) ns3::EthernetTrailer (fcs=0)
- 0.206116 /NodeList/9/DeviceList/1/$ns3::CsmaNetDevice/TxQueue/Dequeue ns3::EthernetHeader ( length/type=0x800, source=00:00:00:00:00:18, destination=01:00:5e:00:00:09) ns3::Ipv4Header (tos 0x0 DSCP Default ECN Not-ECT ttl 1 id 0 protocol 17 offset (bytes) 0 flags [none] length: 52 10.1.12.2 > 224.0.0.9) ns3::UdpHeader (length: 32 520 > 520) ns3::RipHeader (command 1 | prefix 0.0.0.0/0 Metric 16 Tag 0 Next Hop 0.0.0.0) ns3::EthernetTrailer (fcs=0)
+ 0.206116 /NodeList/9/DeviceList/2/$ns3::CsmaNetDevice/TxQueue/Enqueue ns3::EthernetHeader ( length/type=0x800, source=00:00:00:00:00:19, destination=01:00:5e:00:00:09) ns3::Ipv4Header (tos 0x0 DSCP Default ECN Not-ECT ttl 1 id 0 protocol 17 offset (bytes) 0 flags [none] length: 52 10.1.13.1 > 224.0.0.9) ns3::UdpHeader (length: 32 520 > 520) ns3::RipHeader (command 1 | prefix 0.0.0.0/0 Metric 16 Tag 0 Next Hop 0.0.0.0) ns3::EthernetTrailer (fcs=0)
- 0.206116 /NodeList/9/DeviceList/2/$ns3::CsmaNetDevice/TxQueue/Dequeue ns3::EthernetHeader ( length/type=0x800, source=00:00:00:00:00:19, destination=01:00:5e:00:00:09) ns3::Ipv4Header (tos 0x0 DSCP Default ECN Not-ECT ttl 1 id 0 protocol 17 offset (bytes) 0 flags [none] length: 52 10.1.13.1 > 224.0.0.9) ns3::UdpHeader (length: 32 520 > 520) ns3::RipHeader (command 1 | prefix 0.0.0.0/0 Metric 16 Tag 0 Next Hop 0.0.0.0) ns3::EthernetTrailer (fcs=0)
r 0.208228 /NodeList/6/DeviceList/3/$ns3::CsmaNetDevice/MacRx ns3::EthernetHeader ( length/type=0x800, source=00:00:00:00:00:14, destination=01:00:5e:00:00:09) ns3::Ipv4Header (tos 0x0 DSCP Default ECN Not-ECT ttl 1 id 0 protocol 17 offset (bytes) 0 flags [none] length: 52 10.1.10.2 > 224.0.0.9) ns3::UdpHeader (length: 32 520 > 520) ns3::RipHeader (command 1 | prefix 0.0.0.0/0 Metric 16 Tag 0 Next Hop 0.0.0.0) ns3::EthernetTrailer (fcs=0)
r 0.208228 /NodeList/8/DeviceList/1/$ns3::CsmaNetDevice/MacRx ns3::EthernetHeader ( length/type=0x800, source=00:00:00:00:00:18, destination=01:00:5e:00:00:09) ns3::Ipv4Header (tos 0x0 DSCP Default ECN Not-ECT ttl 1 id 0 protocol 17 offset (bytes) 0 flags [none] length: 52 10.1.12.2 > 224.0.0.9) ns3::UdpHeader (length: 32 520 > 520) ns3::RipHeader (command 1 | prefix 0.0.0.0/0 Metric 16 Tag 0 Next Hop 0.0.0.0) ns3::EthernetTrailer (fcs=0)
r 0.208228 /NodeList/10/DeviceList/1/$ns3::CsmaNetDevice/MacRx ns3::EthernetHeader ( length/type=0x800, source=00:00:00:00:00:19, destination=01:00:5e:00:00:09) ns3::Ipv4Header (tos 0x0 DSCP Default ECN Not-ECT ttl 1 id 0 protocol 17 offset (bytes) 0 flags [none] length: 52 10.1.13.1 > 224.0.0.9) ns3::UdpHeader (length: 32 520 > 520) ns3::RipHeader (command 1 | prefix 0.0.0.0/0 Metric 16 Tag 0 Next Hop 0.0.0.0) ns3::EthernetTrailer (fcs=0)
+ 0.210228 /NodeList/8/DeviceList/1/$ns3::CsmaNetDevice/TxQueue/Enqueue ns3::EthernetHeader ( length/type=0x806, source=00:00:00:00:00:17, destination=ff:ff:ff:ff:ff:ff) ns3::ArpHeader (request source mac: 00-06-00:00:00:00:00:17 source ipv4: 10.1.12.1 dest ipv4: 10.1.12.2) Payload (size=18) ns3::EthernetTrailer (fcs=0)
- 0.210228 /NodeList/8/DeviceList/1/$ns3::CsmaNetDevice/TxQueue/Dequeue ns3::EthernetHeader ( length/type=0x806, source=00:00:00:00:00:17, destination=ff:ff:ff:ff:ff:ff) ns3::ArpHeader (request source mac: 00-06-00:00:00:00:00:17 source ipv4: 10.1.12.1 dest ipv4: 10.1.12.2) Payload (size=18) ns3::EthernetTrailer (fcs=0)
r 0.21233 /NodeList/9/DeviceList/1/$ns3::CsmaNetDevice/MacRx ns3::EthernetHeader ( length/type=0x806, source=00:00:00:00:00:17, destination=ff:ff:ff:ff:ff:ff) ns3::ArpHeader (request source mac: 00-06-00:00:00:00:00:17 source ipv4: 10.1.12.1 dest ipv4: 10.1.12.2) Payload (size=18) ns3::EthernetTrailer (fcs=0)
+ 0.21233 /NodeList/9/DeviceList/1/$ns3::CsmaNetDevice/TxQueue/Enqueue ns3::EthernetHeader ( length/type=0x806, source=00:00:00:00:00:18, destination=00:00:00:00:00:17) ns3::ArpHeader (reply source mac: 00-06-00:00:00:00:00:18 source ipv4: 10.1.12.2 dest mac: 00-06-00:00:00:00:00:17 dest ipv4: 10.1.12.1) Payload (size=18) ns3::EthernetTrailer (fcs=0)
- 0.21233 /NodeList/9/DeviceList/1/$ns3::CsmaNetDevice/TxQueue/Dequeue ns3::EthernetHeader ( length/type=0x806, source=00:00:00:00:00:18, destination=00:00:00:00:00:17) ns3::ArpHeader (reply source mac: 00-06-00:00:00:00:00:18 source ipv4: 10.1.12.2 dest mac: 00-06-00:00:00:00:00:17 dest ipv4: 10.1.12.1) Payload (size=18) ns3::EthernetTrailer (fcs=0)
r 0.214434 /NodeList/8/DeviceList/1/$ns3::CsmaNetDevice/MacRx ns3::EthernetHeader ( length/type=0x806, source=00:00:00:00:00:18, destination=00:00:00:00:00:17) ns3::ArpHeader (reply source mac: 00-06-00:00:00:00:00:18 source ipv4: 10.1.12.2 dest mac: 00-06-00:00:00:00:00:17 dest ipv4: 10.1.12.1) Payload (size=18) ns3::EthernetTrailer (fcs=0)
+ 0.214434 /NodeList/8/DeviceList/1/$ns3::CsmaNetDevice/TxQueue/Enqueue ns3::EthernetHeader ( length/type=0x800, source=00:00:00:00:00:17, destination=00:00:00:00:00:18) ns3::Ipv4Header (tos 0x0 DSCP Default ECN Not-ECT ttl 255 id 0 protocol 17 offset (bytes) 0 flags [none] length: 72 10.1.12.1 > 10.1.12.2) ns3::UdpHeader (length: 52 520 > 520) ns3::RipHeader (command 2 | prefix 10.1.9.0/24 Metric 1 Tag 0 Next Hop 0.0.0.0 | prefix 10.1.12.0/24 Metric 16 Tag 0 Next Hop 0.0.0.0) ns3::EthernetTrailer (fcs=0)
- 0.214434 /NodeList/8/DeviceList/1/$ns3::CsmaNetDevice/TxQueue/Dequeue ns3::EthernetHeader ( length/type=0x800, source=00:00:00:00:00:17, destination=00:00:00:00:00:18) ns3::Ipv4Header (tos 0x0 DSCP Default ECN Not-ECT ttl 255 id 0 protocol 17 offset (bytes) 0 flags [none] length: 72 10.1.12.1 > 10.1.12.2) ns3::UdpHeader (length: 52 520 > 520) ns3::RipHeader (command 2 | prefix 10.1.9.0/24 Metric 1 Tag 0 Next Hop 0.0.0.0 | prefix 10.1.12.0/24 Metric 16 Tag 0 Next Hop 0.0.0.0) ns3::EthernetTrailer (fcs=0)
+ 0.216228 /NodeList/6/DeviceList/3/$ns3::CsmaNetDevice/TxQueue/Enqueue ns3::EthernetHeader ( length/type=0x806, source=00:00:00:00:00:13, destination=ff:ff:ff:ff:ff:ff) ns3::ArpHeader (request source mac: 00-06-00:00:00:00:00:13 source ipv4: 10.1.10.1 dest ipv4: 10.1.10.2) Payload (size=18) ns3::EthernetTrailer (fcs=0)
- 0.216228 /NodeList/6/DeviceList/3/$ns3::CsmaNetDevice/TxQueue/Dequeue ns3::EthernetHeader ( length/type=0x806, source=00:00:00:00:00:13, destination=ff:ff:ff:ff:ff:ff) ns3::ArpHeader (request source mac: 00-06-00:00:00:00:00:13 source ipv4: 10.1.10.1 dest ipv4: 10.1.10.2) Payload (size=18) ns3::EthernetTrailer (fcs=0)
r 0.216579 /NodeList/9/DeviceList/1/$ns3::CsmaNetDevice/MacRx ns3::EthernetHeader ( length/type=0x800, source=00:00:00:00:00:17, destination=00:00:00:00:00:18) ns3::Ipv4Header (tos 0x0 DSCP Default ECN Not-ECT ttl 255 id 0 protocol 17 offset (bytes) 0 flags [none] length: 72 10.1.12.1 > 10.1.12.2) ns3::UdpHeader (length: 52 520 > 520) ns3::RipHeader (command 2 | prefix 10.1.9.0/24 Metric 1 Tag 0 Next Hop 0.0.0.0 | prefix 10.1.12.0/24 Metric 16 Tag 0 Next Hop 0.0.0.0) ns3::EthernetTrailer (fcs=0)
+ 0.217228 /NodeList/10/DeviceList/1/$ns3::CsmaNetDevice/TxQueue/Enqueue ns3::EthernetHeader ( length/type=0x806, source=00:00:00:00:00:1a, destination=ff:ff:ff:ff:ff:ff) ns3::ArpHeader (request source mac: 00-06-00:00:00:00:00:1a source ipv4: 10.1.13.2 dest ipv4: 10.1.13.1) Payload (size=18) ns3::EthernetTrailer (fcs=0)
- 0.217228 /NodeList/10/DeviceList/1/$ns3::CsmaNetDevice/TxQueue/Dequeue ns3::EthernetHeader ( length/type=0x806, source=00:00:00:00:00:1a, destination=ff:ff:ff:ff:ff:ff) ns3::ArpHeader (request source mac: 00-06-00:00:00:00:00:1a source ipv4: 10.1.13.2 dest ipv4: 10.1.13.1) Payload (size=18) ns3::EthernetTrailer (fcs=0)
r 0.21833 /NodeList/9/DeviceList/0/$ns3::CsmaNetDevice/MacRx ns3::EthernetHeader ( length/type=0x806, source=00:00:00:00:00:13, destination=ff:ff:ff:ff:ff:ff) ns3::ArpHeader (request source mac: 00-06-00:00:00:00:00:13 source ipv4: 10.1.10.1 dest ipv4: 10.1.10.2) Payload (size=18) ns3::EthernetTrailer (fcs=0)
+ 0.21833 /NodeList/9/DeviceList/0/$ns3::CsmaNetDevice/TxQueue/Enqueue ns3::EthernetHeader ( length/type=0x806, source=00:00:00:00:00:14, destination=00:00:00:00:00:13) ns3::ArpHeader (reply source mac: 00-06-00:00:00:00:00:14 source ipv4: 10.1.10.2 dest mac: 00-06-00:00:00:00:00:13 dest ipv4: 10.1.10.1) Payload (size=18) ns3::EthernetTrailer (fcs=0)
- 0.21833 /NodeList/9/DeviceList/0/$ns3::CsmaNetDevice/TxQueue/Dequeue ns3::EthernetHeader ( length/type=0x806, source=00:00:00:00:00:14, destination=00:00:00:00:00:13) ns3::ArpHeader (reply source mac: 00-06-00:00:00:00:00:14 source ipv4: 10.1.10.2 dest mac: 00-06-00:00:00:00:00:13 dest ipv4: 10.1.10.1) Payload (size=18) ns3::EthernetTrailer (fcs=0)
r 0.21933 /NodeList/9/DeviceList/2/$ns3::CsmaNetDevice/MacRx ns3::EthernetHeader ( length/type=0x806, source=00:00:00:00:00:1a, destination=ff:ff:ff:ff:ff:ff) ns3::ArpHeader (request source mac: 00-06-00:00:00:00:00:1a source ipv4: 10.1.13.2 dest ipv4: 10.1.13.1) Payload (size=18) ns3::EthernetTrailer (fcs=0)
+ 0.21933 /NodeList/9/DeviceList/2/$ns3::CsmaNetDevice/TxQueue/Enqueue ns3::EthernetHeader ( length/type=0x806, source=00:00:00:00:00:19, destination=00:00:00:00:00:1a) ns3::ArpHeader (reply source mac: 00-06-00:00:00:00:00:19 source ipv4: 10.1.13.1 dest mac: 00-06-00:00:00:00:00:1a dest ipv4: 10.1.13.2) Payload (size=18) ns3::EthernetTrailer (fcs=0)
- 0.21933 /NodeList/9/DeviceList/2/$ns3::CsmaNetDevice/TxQueue/Dequeue ns3::EthernetHeader ( length/type=0x806, source=00:00:00:00:00:19, destination=00:00:00:00:00:1a) ns3::ArpHeader (reply source mac: 00-06-00:00:00:00:00:19 source ipv4: 10.1.13.1 dest mac: 00-06-00:00:00:00:00:1a dest ipv4: 10.1.13.2) Payload (size=18) ns3::EthernetTrailer (fcs=0)
r 0.220434 /NodeList/6/DeviceList/3/$ns3::CsmaNetDevice/MacRx ns3::EthernetHeader ( length/type=0x806, source=00:00:00:00:00:14, destination=00:00:00:00:00:13) ns3::ArpHeader (reply source mac: 00-06-00:00:00:00:00:14 source ipv4: 10.1.10.2 dest mac: 00-06-00:00:00:00:00:13 dest ipv4: 10.1.10.1) Payload (size=18) ns3::EthernetTrailer (fcs=0)
+ 0.220434 /NodeList/6/DeviceList/3/$ns3::CsmaNetDevice/TxQueue/Enqueue ns3::EthernetHeader ( length/type=0x800, source=00:00:00:00:00:13, destination=00:00:00:00:00:14) ns3::Ipv4Header (tos 0x0 DSCP Default ECN Not-ECT ttl 255 id 0 protocol 17 offset (bytes) 0 flags [none] length: 112 10.1.10.1 > 10.1.10.2) ns3::UdpHeader (length: 92 520 > 520) ns3::RipHeader (command 2 | prefix 10.1.5.0/24 Metric 1 Tag 0 Next Hop 0.0.0.0 | prefix 10.1.7.0/24 Metric 1 Tag 0 Next Hop 0.0.0.0 | prefix 10.1.8.0/24 Metric 1 Tag 0 Next Hop 0.0.0.0 | prefix 10.1.10.0/24 Metric 16 Tag 0 Next Hop 0.0.0.0) ns3::EthernetTrailer (fcs=0)
- 0.220434 /NodeList/6/DeviceList/3/$ns3::CsmaNetDevice/TxQueue/Dequeue ns3::EthernetHeader ( length/type=0x800, source=00:00:00:00:00:13, destination=00:00:00:00:00:14) ns3::Ipv4Header (tos 0x0 DSCP Default ECN Not-ECT ttl 255 id 0 protocol 17 offset (bytes) 0 flags [none] length: 112 10.1.10.1 > 10.1.10.2) ns3::UdpHeader (length: 92 520 > 520) ns3::RipHeader (command 2 | prefix 10.1.5.0/24 Metric 1 Tag 0 Next Hop 0.0.0.0 | prefix 10.1.7.0/24 Metric 1 Tag 0 Next Hop 0.0.0.0 | prefix 10.1.8.0/24 Metric 1 Tag 0 Next Hop 0.0.0.0 | prefix 10.1.10.0/24 Metric 16 Tag 0 Next Hop 0.0.0.0) ns3::EthernetTrailer (fcs=0)
r 0.221434 /NodeList/10/DeviceList/1/$ns3::CsmaNetDevice/MacRx ns3::EthernetHeader ( length/type=0x806, source=00:00:00:00:00:19, destination=00:00:00:00:00:1a) ns3::ArpHeader (reply source mac: 00-06-00:00:00:00:00:19 source ipv4: 10.1.13.1 dest mac: 00-06-00:00:00:00:00:1a dest ipv4: 10.1.13.2) Payload (size=18) ns3::EthernetTrailer (fcs=0)
+ 0.221434 /NodeList/10/DeviceList/1/$ns3::CsmaNetDevice/TxQueue/Enqueue ns3::EthernetHeader ( length/type=0x800, source=00:00:00:00:00:1a, destination=00:00:00:00:00:19) ns3::Ipv4Header (tos 0x0 DSCP Default ECN Not-ECT ttl 255 id 0 protocol 17 offset (bytes) 0 flags [none] length: 92 10.1.13.2 > 10.1.13.1) ns3::UdpHeader (length: 72 520 > 520) ns3::RipHeader (command 2 | prefix 10.1.11.0/24 Metric 1 Tag 0 Next Hop 0.0.0.0 | prefix 10.1.13.0/24 Metric 16 Tag 0 Next Hop 0.0.0.0 | prefix 10.1.14.0/24 Metric 1 Tag 0 Next Hop 0.0.0.0) ns3::EthernetTrailer (fcs=0)
- 0.221434 /NodeList/10/DeviceList/1/$ns3::CsmaNetDevice/TxQueue/Dequeue ns3::EthernetHeader ( length/type=0x800, source=00:00:00:00:00:1a, destination=00:00:00:00:00:19) ns3::Ipv4Header (tos 0x0 DSCP Default ECN Not-ECT ttl 255 id 0 protocol 17 offset (bytes) 0 flags [none] length: 92 10.1.13.2 > 10.1.13.1) ns3::UdpHeader (length: 72 520 > 520) ns3::RipHeader (command 2 | prefix 10.1.11.0/24 Metric 1 Tag 0 Next Hop 0.0.0.0 | prefix 10.1.13.0/24 Metric 16 Tag 0 Next Hop 0.0.0.0 | prefix 10.1.14.0/24 Metric 1 Tag 0 Next Hop 0.0.0.0) ns3::EthernetTrailer (fcs=0)
r 0.222643 /NodeList/9/DeviceList/0/$ns3::CsmaNetDevice/MacRx ns3::EthernetHeader ( length/type=0x800, source=00:00:00:00:00:13, destination=00:00:00:00:00:14) ns3::Ipv4Header (tos 0x0 DSCP Default ECN Not-ECT ttl 255 id 0 protocol 17 offset (bytes) 0 flags [none] length: 112 10.1.10.1 > 10.1.10.2) ns3::UdpHeader (length: 92 520 > 520) ns3::RipHeader (command 2 | prefix 10.1.5.0/24 Metric 1 Tag 0 Next Hop 0.0.0.0 | prefix 10.1.7.0/24 Metric 1 Tag 0 Next Hop 0.0.0.0 | prefix 10.1.8.0/24 Metric 1 Tag 0 Next Hop 0.0.0.0 | prefix 10.1.10.0/24 Metric 16 Tag 0 Next Hop 0.0.0.0) ns3::EthernetTrailer (fcs=0)
r 0.223611 /NodeList/9/DeviceList/2/$ns3::CsmaNetDevice/MacRx ns3::EthernetHeader ( length/type=0x800, source=00:00:00:00:00:1a, destination=00:00:00:00:00:19) ns3::Ipv4Header (tos 0x0 DSCP Default ECN Not-ECT ttl 255 id 0 protocol 17 offset (bytes) 0 flags [none] length: 92 10.1.13.2 > 10.1.13.1) ns3::UdpHeader (length: 72 520 > 520) ns3::RipHeader (command 2 | prefix 10.1.11.0/24 Metric 1 Tag 0 Next Hop 0.0.0.0 | prefix 10.1.13.0/24 Metric 16 Tag 0 Next Hop 0.0.0.0 | prefix 10.1.14.0/24 Metric 1 Tag 0 Next Hop 0.0.0.0) ns3::EthernetTrailer (fcs=0)
+ 0.237137 /NodeList/4/DeviceList/0/$ns3::CsmaNetDevice/TxQueue/Enqueue ns3::EthernetHeader ( length/type=0x800, source=00:00:00:00:00:06, destination=01:00:5e:00:00:09) ns3::Ipv4Header (tos 0x0 DSCP Default ECN Not-ECT ttl 1 id 0 protocol 17 offset (bytes) 0 flags [none] length: 52 10.1.3.2 > 224.0.0.9) ns3::UdpHeader (length: 32 520 > 520) ns3::RipHeader (command 1 | prefix 0.0.0.0/0 Metric 16 Tag 0 Next Hop 0.0.0.0) ns3::EthernetTrailer (fcs=0)
- 0.237137 /NodeList/4/DeviceList/0/$ns3::CsmaNetDevice/TxQueue/Dequeue ns3::EthernetHeader ( length/type=0x800, source=00:00:00:00:00:06, destination=01:00:5e:00:00:09) ns3::Ipv4Header (tos 0x0 DSCP Default ECN Not-ECT ttl 1 id 0 protocol 17 offset (bytes) 0 flags [none] length: 52 10.1.3.2 > 224.0.0.9) ns3::UdpHeader (length: 32 520 > 520) ns3::RipHeader (command 1 | prefix 0.0.0.0/0 Metric 16 Tag 0 Next Hop 0.0.0.0) ns3::EthernetTrailer (fcs=0)
+ 0.237137 /NodeList/4/DeviceList/1/$ns3::CsmaNetDevice/TxQueue/Enqueue ns3::EthernetHeader ( length/type=0x800, source=00:00:00:00:00:0b, destination=01:00:5e:00:00:09) ns3::Ipv4Header (tos 0x0 DSCP Default ECN Not-ECT ttl 1 id 0 protocol 17 offset (bytes) 0 flags [none] length: 52 10.1.6.1 > 224.0.0.9) ns3::UdpHeader (length: 32 520 > 520) ns3::RipHeader (command 1 | prefix 0.0.0.0/0 Metric 16 Tag 0 Next Hop 0.0.0.0) ns3::EthernetTrailer (fcs=0)
- 0.237137 /NodeList/4/DeviceList/1/$ns3::CsmaNetDevice/TxQueue/Dequeue ns3::EthernetHeader ( length/type=0x800, source=00:00:00:00:00:0b, destination=01:00:5e:00:00:09) ns3::Ipv4Header (tos 0x0 DSCP Default ECN Not-ECT ttl 1 id 0 protocol 17 offset (bytes) 0 flags [none] length: 52 10.1.6.1 > 224.0.0.9) ns3::UdpHeader (length: 32 520 > 520) ns3::RipHeader (command 1 | prefix 0.0.0.0/0 Metric 16 Tag 0 Next Hop 0.0.0.0) ns3::EthernetTrailer (fcs=0)
r 0.239249 /NodeList/3/DeviceList/1/$ns3::CsmaNetDevice/MacRx ns3::EthernetHeader ( length/type=0x800, source=00:00:00:00:00:06, destination=01:00:5e:00:00:09) ns3::Ipv4Header (tos 0x0 DSCP Default ECN Not-ECT ttl 1 id 0 protocol 17 offset (bytes) 0 flags [none] length: 52 10.1.3.2 > 224.0.0.9) ns3::UdpHeader (length: 32 520 > 520) ns3::RipHeader (command 1 | prefix 0.0.0.0/0 Metric 16 Tag 0 Next Hop 0.0.0.0) ns3::EthernetTrailer (fcs=0)
r 0.239249 /NodeList/7/DeviceList/0/$ns3::CsmaNetDevice/MacRx ns3::EthernetHeader ( length/type=0x800, source=00:00:00:00:00:0b, destination=01:00:5e:00:00:09) ns3::Ipv4Header (tos 0x0 DSCP Default ECN Not-ECT ttl 1 id 0 protocol 17 offset (bytes) 0 flags [none] length: 52 10.1.6.1 > 224.0.0.9) ns3::UdpHeader (length: 32 520 > 520) ns3::RipHeader (command 1 | prefix 0.0.0.0/0 Metric 16 Tag 0 Next Hop 0.0.0.0) ns3::EthernetTrailer (fcs=0)
+ 0.245249 /NodeList/3/DeviceList/1/$ns3::CsmaNetDevice/TxQueue/Enqueue ns3::EthernetHeader ( length/type=0x806, source=00:00:00:00:00:05, destination=ff:ff:ff:ff:ff:ff) ns3::ArpHeader (request source mac: 00-06-00:00:00:00:00:05 source ipv4: 10.1.3.1 dest ipv4: 10.1.3.2) Payload (size=18) ns3::EthernetTrailer (fcs=0)
- 0.245249 /NodeList/3/DeviceList/1/$ns3::CsmaNetDevice/TxQueue/Dequeue ns3::EthernetHeader ( length/type=0x806, source=00:00:00:00:00:05, destination=ff:ff:ff:ff:ff:ff) ns3::ArpHeader (request source mac: 00-06-00:00:00:00:00:05 source ipv4: 10.1.3.1 dest ipv4: 10.1.3.2) Payload (size=18) ns3::EthernetTrailer (fcs=0)
r 0.247351 /NodeList/4/DeviceList/0/$ns3::CsmaNetDevice/MacRx ns3::EthernetHeader ( length/type=0x806, source=00:00:00:00:00:05, destination=ff:ff:ff:ff:ff:ff) ns3::ArpHeader (request source mac: 00-06-00:00:00:00:00:05 source ipv4: 10.1.3.1 dest ipv4: 10.1.3.2) Payload (size=18) ns3::EthernetTrailer (fcs=0)
+ 0.247351 /NodeList/4/DeviceList/0/$ns3::CsmaNetDevice/TxQueue/Enqueue ns3::EthernetHeader ( length/type=0x806, source=00:00:00:00:00:06, destination=00:00:00:00:00:05) ns3::ArpHeader (reply source mac: 00-06-00:00:00:00:00:06 source ipv4: 10.1.3.2 dest mac: 00-06-00:00:00:00:00:05 dest ipv4: 10.1.3.1) Payload (size=18) ns3::EthernetTrailer (fcs=0)
- 0.247351 /NodeList/4/DeviceList/0/$ns3::CsmaNetDevice/TxQueue/Dequeue ns3::EthernetHeader ( length/type=0x806, source=00:00:00:00:00:06, destination=00:00:00:00:00:05) ns3::ArpHeader (reply source mac: 00-06-00:00:00:00:00:06 source ipv4: 10.1.3.2 dest mac: 00-06-00:00:00:00:00:05 dest ipv4: 10.1.3.1) Payload (size=18) ns3::EthernetTrailer (fcs=0)