+ 0.0913393 /NodeList/7/DeviceList/0/$ns3::CsmaNetDevice/TxQueue/Enqueue ns3::EthernetHeader ( length/type=0x800, source=00:00:00:00:00:0c, destination=01:00:5e:00:00:09) ns3::Ipv4Header (tos 0x0 DSCP Default ECN Not-ECT ttl 1 id 0 protocol 17 offset (bytes) 0 flags [none] length: 52 10.1.6.2 > 224.0.0.9) ns3::UdpHeader (length: 32 520 > 520) ns3::RipHeader (command 1 | prefix 0.0.0.0/0 Metric 16 Tag 0 Next Hop 0.0.0.0) ns3::EthernetTrailer (fcs=0)
- 0.0913393 /NodeList/7/DeviceList/0/$ns3::CsmaNetDevice/TxQueue/Dequeue ns3::EthernetHeader ( length/type=0x800, source=00:00:00:00:00:0c, destination=01:00:5e:00:00:09) ns3::Ipv4Header (tos 0x0 DSCP Default ECN Not-ECT ttl 1 id 0 protocol 17 offset (bytes) 0 flags [none] length: 52 10.1.6.2 > 224.0.0.9) ns3::UdpHeader (length: 32 520 > 520) ns3::RipHeader (command 1 | prefix 0.0.0.0/0 Metric 16 Tag 0 Next Hop 0.0.0.0) ns3::EthernetTrailer (fcs=0)
+ 0.0913393 /NodeList/7/DeviceList/1/$ns3::CsmaNetDevice/TxQueue/Enqueue ns3::EthernetHeader ( length/type=0x800, source=00:00:00:00:00:10, destination=01:00:5e:00:00:09) ns3::Ipv4Header (tos 0x0 DSCP Default ECN Not-ECT ttl 1 id 0 protocol 17 offset (bytes) 0 flags [none] length: 52 10.1.8.2 > 224.0.0.9) ns3::UdpHeader (length: 32 520 > 520) ns3::RipHeader (command 1 | prefix 0.0.0.0/0 Metric 16 Tag 0 Next Hop 0.0.0.0) ns3::EthernetTrailer (fcs=0)
- 0.0913393 /NodeList/7/DeviceList/1/$ns3::CsmaNetDevice/TxQueue/Dequeue ns3::EthernetHeader ( length/type=0x800, source=00:00:00:00:00:10, destination=01:00:5e:00:00:09) ns3::Ipv4Header (tos 0x0 DSCP Default ECN Not-ECT ttl 1 id 0 protocol 17 offset (bytes) 0 flags [none] length: 52 10.1.8.2 > 224.0.0.9) ns3::UdpHeader (length: 32 520 > 520) ns3::RipHeader (command 1 | prefix 0.0.0.0/0 Metric 16 Tag 0 Next Hop 0.0.0.0) ns3::EthernetTrailer (fcs=0)
+ 0.0913393 /NodeList/7/DeviceList/2/$ns3::CsmaNetDevice/TxQueue/Enqueue ns3::EthernetHeader ( length/type=0x800, source=00:00:00:00:00:15, destination=01:00:5e:00:00:09) ns3::Ipv4Header (tos 0x0 DSCP Default ECN Not-ECT ttl 1 id 0 protocol 17 offset (bytes) 0 flags [none] length: 52 10.1.11.1 > 224.0.0.9) ns3::UdpHeader (length: 32 520 > 520) ns3::RipHeader (command 1 | prefix 0.0.0.0/0 Metric 16 Tag 0 Next Hop 0.0.0.0) ns3::EthernetTrailer (fcs=0)
- 0.0913393 /NodeList/7/DeviceList/2/$ns3::CsmaNetDevice/TxQueue/Dequeue ns3::EthernetHeader ( length/type=0x800, source=00:00:00:00:00:15, destination=01:00:5e:00:00:09) ns3::Ipv4Header (tos 0x0 DSCP Default ECN Not-ECT ttl 1 id 0 protocol 17 offset (bytes) 0 flags [none] length: 52 10.1.11.1 > 224.0.0.9) ns3::UdpHeader (length: 32 520 > 520) ns3::RipHeader (command 1 | prefix 0.0.0.0/0 Metric 16 Tag 0 Next Hop 0.0.0.0) ns3::EthernetTrailer (fcs=0)
r 0.0934513 /NodeList/4/DeviceList/1/$ns3::CsmaNetDevice/MacRx ns3::EthernetHeader ( length/type=0x800, source=00:00:00:00:00:0c, destination=01:00:5e:00:00:09) ns3::Ipv4Header (tos 0x0 DSCP Default ECN Not-ECT ttl 1 id 0 protocol 17 offset (bytes) 0 flags [none] length: 52 10.1.6.2 > 224.0.0.9) ns3::UdpHeader (length: 32 520 > 520) ns3::RipHeader (command 1 | prefix 0.0.0.0/0 Metric 16 Tag 0 Next Hop 0.0.0.0) ns3::EthernetTrailer (fcs=0)
r 0.0934513 /NodeList/6/DeviceList/2/$ns3::CsmaNetDevice/MacRx ns3::EthernetHeader ( length/type=0x800, source=00:00:00:00:00:10, destination=01:00:5e:00:00:09) ns3::Ipv4Header (tos 0x0 DSCP Default ECN Not-ECT ttl 1 id 0 protocol 17 offset (bytes) 0 flags [none] length: 52 10.1.8.2 > 224.0.0.9) ns3::UdpHeader (length: 32 520 > 520) ns3::RipHeader (command 1 | prefix 0.0.0.0/0 Metric 16 Tag 0 Next Hop 0.0.0.0) ns3::EthernetTrailer (fcs=0)
r 0.0934513 /NodeList/10/DeviceList/0/$ns3::CsmaNetDevice/MacRx ns3::EthernetHeader ( length/type=0x800, source=00:00:00:00:00:15, destination=01:00:5e:00:00:09) ns3::Ipv4Header (tos 0x0 DSCP Default ECN Not-ECT ttl 1 id 0 protocol 17 offset (bytes) 0 flags [none] length: 52 10.1.11.1 > 224.0.0.9) ns3::UdpHeader (length: 32 520 > 520) ns3::RipHeader (command 1 | prefix 0.0.0.0/0 Metric 16 Tag 0 Next Hop 0.0.0.0) ns3::EthernetTrailer (fcs=0)
+ 0.0954513 /NodeList/10/DeviceList/0/$ns3::CsmaNetDevice/TxQueue/Enqueue ns3::EthernetHeader ( length/type=0x806, source=00:00:00:00:00:16, destination=ff:ff:ff:ff:ff:ff) ns3::ArpHeader (request source mac: 00-06-00:00:00:00:00:16 source ipv4: 10.1.11.2 dest ipv4: 10.1.11.1) Payload (size=18) ns3::EthernetTrailer (fcs=0)
- 0.0954513 /NodeList/10/DeviceList/0/$ns3::CsmaNetDevice/TxQueue/Dequeue ns3::EthernetHeader ( length/type=0x806, source=00:00:00:00:00:16, destination=ff:ff:ff:ff:ff:ff) ns3::ArpHeader (request source mac: 00-06-00:00:00:00:00:16 source ipv4: 10.1.11.2 dest ipv4: 10.1.11.1) Payload (size=18) ns3::EthernetTrailer (fcs=0)
+ 0.0964513 /NodeList/4/DeviceList/1/$ns3::CsmaNetDevice/TxQueue/Enqueue ns3::EthernetHeader ( length/type=0x806, source=00:00:00:00:00:0b, destination=ff:ff:ff:ff:ff:ff) ns3::ArpHeader (request source mac: 00-06-00:00:00:00:00:0b source ipv4: 10.1.6.1 dest ipv4: 10.1.6.2) Payload (size=18) ns3::EthernetTrailer (fcs=0)
- 0.0964513 /NodeList/4/DeviceList/1/$ns3::CsmaNetDevice/TxQueue/Dequeue ns3::EthernetHeader ( length/type=0x806, source=00:00:00:00:00:0b, destination=ff:ff:ff:ff:ff:ff) ns3::ArpHeader (request source mac: 00-06-00:00:00:00:00:0b source ipv4: 10.1.6.1 dest ipv4: 10.1.6.2) Payload (size=18) ns3::EthernetTrailer (fcs=0)
r 0.0975537 /NodeList/7/DeviceList/2/$ns3::CsmaNetDevice/MacRx ns3::EthernetHeader ( length/type=0x806, source=00:00:00:00:00:16, destination=ff:ff:ff:ff:ff:ff) ns3::ArpHeader (request source mac: 00-06-00:00:00:00:00:16 source ipv4: 10.1.11.2 dest ipv4: 10.1.11.1) Payload (size=18) ns3::EthernetTrailer (fcs=0)
+ 0.0975537 /NodeList/7/DeviceList/2/$ns3::CsmaNetDevice/TxQueue/Enqueue ns3::EthernetHeader ( length/type=0x806, source=00:00:00:00:00:15, destination=00:00:00:00:00:16) ns3::ArpHeader (reply source mac: 00-06-00:00:00:00:00:15 source ipv4: 10.1.11.1 dest mac: 00-06-00:00:00:00:00:16 dest ipv4: 10.1.11.2) Payload (size=18) ns3::EthernetTrailer (fcs=0)
- 0.0975537 /NodeList/7/DeviceList/2/$ns3::CsmaNetDevice/TxQueue/Dequeue ns3::EthernetHeader ( length/type=0x806, source=00:00:00:00:00:15, destination=00:00:00:00:00:16) ns3::ArpHeader (reply source mac: 00-06-00:00:00:00:00:15 source ipv4: 10.1.11.1 dest mac: 00-06-00:00:00:00:00:16 dest ipv4: 10.1.11.2) Payload (size=18) ns3::EthernetTrailer (fcs=0)
r 0.0985537 /NodeList/7/DeviceList/0/$ns3::CsmaNetDevice/MacRx ns3::EthernetHeader ( length/type=0x806, source=00:00:00:00:00:0b, destination=ff:ff:ff:ff:ff:ff) ns3::ArpHeader (request source mac: 00-06-00:00:00:00:00:0b source ipv4: 10.1.6.1 dest ipv4: 10.1.6.2) Payload (size=18) ns3::EthernetTrailer (fcs=0)
+ 0.0985537 /NodeList/7/DeviceList/0/$ns3::CsmaNetDevice/TxQueue/Enqueue ns3::EthernetHeader ( length/type=0x806, source=00:00:00:00:00:0c, destination=00:00:00:00:00:0b) ns3::ArpHeader (reply source mac: 00-06-00:00:00:00:00:0c source ipv4: 10.1.6.2 dest mac: 00-06-00:00:00:00:00:0b dest ipv4: 10.1.6.1) Payload (size=18) ns3::EthernetTrailer (fcs=0)
- 0.0985537 /NodeList/7/DeviceList/0/$ns3::CsmaNetDevice/TxQueue/Dequeue ns3::EthernetHeader ( length/type=0x806, source=00:00:00:00:00:0c, destination=00:00:00:00:00:0b) ns3::ArpHeader (reply source mac: 00-06-00:00:00:00:00:0c source ipv4: 10.1.6.2 dest mac: 00-06-00:00:00:00:00:0b dest ipv4: 10.1.6.1) Payload (size=18) ns3::EthernetTrailer (fcs=0)
+ 0.0994513 /NodeList/6/DeviceList/2/$ns3::CsmaNetDevice/TxQueue/Enqueue ns3::EthernetHeader ( length/type=0x806, source=00:00:00:00:00:0f, destination=ff:ff:ff:ff:ff:ff) ns3::ArpHeader (request source mac: 00-06-00:00:00:00:00:0f source ipv4: 10.1.8.1 dest ipv4: 10.1.8.2) Payload (size=18) ns3::EthernetTrailer (fcs=0)
- 0.0994513 /NodeList/6/DeviceList/2/$ns3::CsmaNetDevice/TxQueue/Dequeue ns3::EthernetHeader ( length/type=0x806, source=00:00:00:00:00:0f, destination=ff:ff:ff:ff:ff:ff) ns3::ArpHeader (request source mac: 00-06-00:00:00:00:00:0f source ipv4: 10.1.8.1 dest ipv4: 10.1.8.2) Payload (size=18) ns3::EthernetTrailer (fcs=0)
r 0.0996571 /NodeList/10/DeviceList/0/$ns3::CsmaNetDevice/MacRx ns3::EthernetHeader ( length/type=0x806, source=00:00:00:00:00:15, destination=00:00:00:00:00:16) ns3::ArpHeader (reply source mac: 00-06-00:00:00:00:00:15 source ipv4: 10.1.11.1 dest mac: 00-06-00:00:00:00:00:16 dest ipv4: 10.1.11.2) Payload (size=18) ns3::EthernetTrailer (fcs=0)
+ 0.0996571 /NodeList/10/DeviceList/0/$ns3::CsmaNetDevice/TxQueue/Enqueue ns3::EthernetHeader ( length/type=0x800, source=00:00:00:00:00:16, destination=00:00:00:00:00:15) ns3::Ipv4Header (tos 0x0 DSCP Default ECN Not-ECT ttl 255 id 0 protocol 17 offset (bytes) 0 flags [none] length: 92 10.1.11.2 > 10.1.11.1) ns3::UdpHeader (length: 72 520 > 520) ns3::RipHeader (command 2 | prefix 10.1.11.0/24 Metric 16 Tag 0 Next Hop 0.0.0.0 | prefix 10.1.13.0/24 Metric 1 Tag 0 Next Hop 0.0.0.0 | prefix 10.1.14.0/24 Metric 1 Tag 0 Next Hop 0.0.0.0) ns3::EthernetTrailer (fcs=0)
- 0.0996571 /NodeList/10/DeviceList/0/$ns3::CsmaNetDevice/TxQueue/Dequeue ns3::EthernetHeader ( length/type=0x800, source=00:00:00:00:00:16, destination=00:00:00:00:00:15) ns3::Ipv4Header (tos 0x0 DSCP Default ECN Not-ECT ttl 255 id 0 protocol 17 offset (bytes) 0 flags [none] length: 92 10.1.11.2 > 10.1.11.1) ns3::UdpHeader (length: 72 520 > 520) ns3::RipHeader (command 2 | prefix 10.1.11.0/24 Metric 16 Tag 0 Next Hop 0.0.0.0 | prefix 10.1.13.0/24 Metric 1 Tag 0 Next Hop 0.0.0.0 | prefix 10.1.14.0/24 Metric 1 Tag 0 Next Hop 0.0.0.0) ns3::EthernetTrailer (fcs=0)
r 0.100657 /NodeList/4/DeviceList/1/$ns3::CsmaNetDevice/MacRx ns3::EthernetHeader ( length/type=0x806, source=00:00:00:00:00:0c, destination=00:00:00:00:00:0b) ns3::ArpHeader (reply source mac: 00-06-00:00:00:00:00:0c source ipv4: 10.1.6.2 dest mac: 00-06-00:00:00:00:00:0b dest ipv4: 10.1.6.1) Payload (size=18) ns3::EthernetTrailer (fcs=0)
+ 0.100657 /NodeList/4/DeviceList/1/$ns3::CsmaNetDevice/TxQueue/Enqueue ns3::EthernetHeader ( length/type=0x800, source=00:00:00:00:00:0b, destination=00:00:00:00:00:0c) ns3::Ipv4Header (tos 0x0 DSCP Default ECN Not-ECT ttl 255 id 0 protocol 17 offset (bytes) 0 flags [none] length: 72 10.1.6.1 > 10.1.6.2) ns3::UdpHeader (length: 52 520 > 520) ns3::RipHeader (command 2 | prefix 10.1.3.0/24 Metric 1 Tag 0 Next Hop 0.0.0.0 | prefix 10.1.6.0/24 Metric 16 Tag 0 Next Hop 0.0.0.0) ns3::EthernetTrailer (fcs=0)
- 0.100657 /NodeList/4/DeviceList/1/$ns3::CsmaNetDevice/TxQueue/Dequeue ns3::EthernetHeader ( length/type=0x800, source=00:00:00:00:00:0b, destination=00:00:00:00:00:0c) ns3::Ipv4Header (tos 0x0 DSCP Default ECN Not-ECT ttl 255 id 0 protocol 17 offset (bytes) 0 flags [none] length: 72 10.1.6.1 > 10.1.6.2) ns3::UdpHeader (length: 52 520 > 520) ns3::RipHeader (command 2 | prefix 10.1.3.0/24 Metric 1 Tag 0 Next Hop 0.0.0.0 | prefix 10.1.6.0/24 Metric 16 Tag 0 Next Hop 0.0.0.0) ns3::EthernetTrailer (fcs=0)
r 0.101554 /NodeList/7/DeviceList/1/$ns3::CsmaNetDevice/MacRx ns3::EthernetHeader ( length/type=0x806, source=00:00:00:00:00:0f, destination=ff:ff:ff:ff:ff:ff) ns3::ArpHeader (request source mac: 00-06-00:00:00:00:00:0f source ipv4: 10.1.8.1 dest ipv4: 10.1.8.2) Payload (size=18) ns3::EthernetTrailer (fcs=0)
+ 0.101554 /NodeList/7/DeviceList/1/$ns3::CsmaNetDevice/TxQueue/Enqueue ns3::EthernetHeader ( length/type=0x806, source=00:00:00:00:00:10, destination=00:00:00:00:00:0f) ns3::ArpHeader (reply source mac: 00-06-00:00:00:00:00:10 source ipv4: 10.1.8.2 dest mac: 00-06-00:00:00:00:00:0f dest ipv4: 10.1.8.1) Payload (size=18) ns3::EthernetTrailer (fcs=0)
- 0.101554 /NodeList/7/DeviceList/1/$ns3::CsmaNetDevice/TxQueue/Dequeue ns3::EthernetHeader ( length/type=0x806, source=00:00:00:00:00:10, destination=00:00:00:00:00:0f) ns3::ArpHeader (reply source mac: 00-06-00:00:00:00:00:10 source ipv4: 10.1.8.2 dest mac: 00-06-00:00:00:00:00:0f dest ipv4: 10.1.8.1) Payload (size=18) ns3::EthernetTrailer (fcs=0)
r 0.101834 /NodeList/7/DeviceList/2/$ns3::CsmaNetDevice/MacRx ns3::EthernetHeader ( length/type=0x800, source=00:00:00:00:00:16, destination=00:00:00:00:00:15) ns3::Ipv4Header (tos 0x0 DSCP Default ECN Not-ECT ttl 255 id 0 protocol 17 offset (bytes) 0 flags [none] length: 92 10.1.11.2 > 10.1.11.1) ns3::UdpHeader (length: 72 520 > 520) ns3::RipHeader (command 2 | prefix 10.1.11.0/24 Metric 16 Tag 0 Next Hop 0.0.0.0 | prefix 10.1.13.0/24 Metric 1 Tag 0 Next Hop 0.0.0.0 | prefix 10.1.14.0/24 Metric 1 Tag 0 Next Hop 0.0.0.0) ns3::EthernetTrailer (fcs=0)
r 0.102802 /NodeList/7/DeviceList/0/$ns3::CsmaNetDevice/MacRx ns3::EthernetHeader ( length/type=0x800, source=00:00:00:00:00:0b, destination=00:00:00:00:00:0c) ns3::Ipv4Header (tos 0x0 DSCP Default ECN Not-ECT ttl 255 id 0 protocol 17 offset (bytes) 0 flags [none] length: 72 10.1.6.1 > 10.1.6.2) ns3::UdpHeader (length: 52 520 > 520) ns3::RipHeader (command 2 | prefix 10.1.3.0/24 Metric 1 Tag 0 Next Hop 0.0.0.0 | prefix 10.1.6.0/24 Metric 16 Tag 0 Next Hop 0.0.0.0) ns3::EthernetTrailer (fcs=0)
r 0.103657 /NodeList/6/DeviceList/2/$ns3::CsmaNetDevice/MacRx ns3::EthernetHeader ( length/type=0x806, source=00:00:00:00:00:10, destination=00:00:00:00:00:0f) ns3::ArpHeader (reply source mac: 00-06-00:00:00:00:00:10 source ipv4: 10.1.8.2 dest mac: 00-06-00:00:00:00:00:0f dest ipv4: 10.1.8.1) Payload (size=18) ns3::EthernetTrailer (fcs=0)
+ 0.103657 /NodeList/6/DeviceList/2/$ns3::CsmaNetDevice/TxQueue/Enqueue ns3::EthernetHeader ( length/type=0x800, source=00:00:00:00:00:0f, destination=00:00:00:00:00:10) ns3::Ipv4Header (tos 0x0 DSCP Default ECN Not-ECT ttl 255 id 0 protocol 17 offset (bytes) 0 flags [none] length: 112 10.1.8.1 > 10.1.8.2) ns3::UdpHeader (length: 92 520 > 520) ns3::RipHeader (command 2 | prefix 10.1.5.0/24 Metric 1 Tag 0 Next Hop 0.0.0.0 | prefix 10.1.7.0/24 Metric 1 Tag 0 Next Hop 0.0.0.0 | prefix 10.1.8.0/24 Metric 16 Tag 0 Next Hop 0.0.0.0 | prefix 10.1.10.0/24 Metric 1 Tag 0 Next Hop 0.0.0.0) ns3::EthernetTrailer (fcs=0)
- 0.103657 /NodeList/6/DeviceList/2/$ns3::CsmaNetDevice/TxQueue/Dequeue ns3::EthernetHeader ( length/type=0x800, source=00:00:00:00:00:0f, destination=00:00:00:00:00:10) ns3::Ipv4Header (tos 0x0 DSCP Default ECN Not-ECT ttl 255 id 0 protocol 17 offset (bytes) 0 flags [none] length: 112 10.1.8.1 > 10.1.8.2) ns3::UdpHeader (length: 92 520 > 520) ns3::RipHeader (command 2 | prefix 10.1.5.0/24 Metric 1 Tag 0 Next Hop 0.0.0.0 | prefix 10.1.7.0/24 Metric 1 Tag 0 Next Hop 0.0.0.0 | prefix 10.1.8.0/24 Metric 16 Tag 0 Next Hop 0.0.0.0 | prefix 10.1.10.0/24 Metric 1 Tag 0 Next Hop 0.0.0.0) ns3::EthernetTrailer (fcs=0)
r 0.105866 /NodeList/7/DeviceList/1/$ns3::CsmaNetDevice/MacRx ns3::EthernetHeader ( length/type=0x800, source=00:00:00:00:00:0f, destination=00:00:00:00:00:10) ns3::Ipv4Header (tos 0x0 DSCP Default ECN Not-ECT ttl 255 id 0 protocol 17 offset (bytes) 0 flags [none] length: 112 10.1.8.1 > 10.1.8.2) ns3::UdpHeader (length: 92 520 > 520) ns3::RipHeader (command 2 | prefix 10.1.5.0/24 Metric 1 Tag 0 Next Hop 0.0.0.0 | prefix 10.1.7.0/24 Metric 1 Tag 0 Next Hop 0.0.0.0 | prefix 10.1.8.0/24 Metric 16 Tag 0 Next Hop 0.0.0.0 | prefix 10.1.10.0/24 Metric 1 Tag 0 Next Hop 0.0.0.0) ns3::EthernetTrailer (fcs=0)
+ 0.237137 /NodeList/6/DeviceList/0/$ns3::CsmaNetDevice/TxQueue/Enqueue ns3::EthernetHeader ( length/type=0x800, source=00:00:00:00:00:0a, destination=01:00:5e:00:00:09) ns3::Ipv4Header (tos 0x0 DSCP Default ECN Not-ECT ttl 1 id 0 protocol 17 offset (bytes) 0 flags [none] length: 52 10.1.5.2 > 224.0.0.9) ns3::UdpHeader (length: 32 520 > 520) ns3::RipHeader (command 1 | prefix 0.0.0.0/0 Metric 16 Tag 0 Next Hop 0.0.0.0) ns3::EthernetTrailer (fcs=0)
- 0.237137 /NodeList/6/DeviceList/0/$ns3::CsmaNetDevice/TxQueue/Dequeue ns3::EthernetHeader ( length/type=0x800, source=00:00:00:00:00:0a, destination=01:00:5e:00:00:09) ns3::Ipv4Header (tos 0x0 DSCP Default ECN Not-ECT ttl 1 id 0 protocol 17 offset (bytes) 0 flags [none] length: 52 10.1.5.2 > 224.0.0.9) ns3::UdpHeader (length: 32 520 > 520) ns3::RipHeader (command 1 | prefix 0.0.0.0/0 Metric 16 Tag 0 Next Hop 0.0.0.0) ns3::EthernetTrailer (fcs=0)
+ 0.237137 /NodeList/6/DeviceList/1/$ns3::CsmaNetDevice/TxQueue/Enqueue ns3::EthernetHeader ( length/type=0x800, source=00:00:00:00:00:0e, destination=01:00:5e:00:00:09) ns3::Ipv4Header (tos 0x0 DSCP Default ECN Not-ECT ttl 1 id 0 protocol 17 offset (bytes) 0 flags [none] length: 52 10.1.7.2 > 224.0.0.9) ns3::UdpHeader (length: 32 520 > 520) ns3::RipHeader (command 1 | prefix 0.0.0.0/0 Metric 16 Tag 0 Next Hop 0.0.0.0) ns3::EthernetTrailer (fcs=0)
- 0.237137 /NodeList/6/DeviceList/1/$ns3::CsmaNetDevice/TxQueue/Dequeue ns3::EthernetHeader ( length/type=0x800, source=00:00:00:00:00:0e, destination=01:00:5e:00:00:09) ns3::Ipv4Header (tos 0x0 DSCP Default ECN Not-ECT ttl 1 id 0 protocol 17 offset (bytes) 0 flags [none] length: 52 10.1.7.2 > 224.0.0.9) ns3::UdpHeader (length: 32 520 > 520) ns3::RipHeader (command 1 | prefix 0.0.0.0/0 Metric 16 Tag 0 Next Hop 0.0.0.0) ns3::EthernetTrailer (fcs=0)
+ 0.237137 /NodeList/6/DeviceList/2/$ns3::CsmaNetDevice/TxQueue/Enqueue ns3::EthernetHeader ( length/type=0x800, source=00:00:00:00:00:0f, destination=01:00:5e:00:00:09) ns3::Ipv4Header (tos 0x0 DSCP Default ECN Not-ECT ttl 1 id 0 protocol 17 offset (bytes) 0 flags [none] length: 52 10.1.8.1 > 224.0.0.9) ns3::UdpHeader (length: 32 520 > 520) ns3::RipHeader (command 1 | prefix 0.0.0.0/0 Metric 16 Tag 0 Next Hop 0.0.0.0) ns3::EthernetTrailer (fcs=0)
- 0.237137 /NodeList/6/DeviceList/2/$ns3::CsmaNetDevice/TxQueue/Dequeue ns3::EthernetHeader ( length/type=0x800, source=00:00:00:00:00:0f, destination=01:00:5e:00:00:09) ns3::Ipv4Header (tos 0x0 DSCP Default ECN Not-ECT ttl 1 id 0 protocol 17 offset (bytes) 0 flags [none] length: 52 10.1.8.1 > 224.0.0.9) ns3::UdpHeader (length: 32 520 > 520) ns3::RipHeader (command 1 | prefix 0.0.0.0/0 Metric 16 Tag 0 Next Hop 0.0.0.0) ns3::EthernetTrailer (fcs=0)
+ 0.237137 /NodeList/6/DeviceList/3/$ns3::CsmaNetDevice/TxQueue/Enqueue ns3::EthernetHeader ( length/type=0x800, source=00:00:00:00:00:13, destination=01:00:5e:00:00:09) ns3::Ipv4Header (tos 0x0 DSCP Default ECN Not-ECT ttl 1 id 0 protocol 17 offset (bytes) 0 flags [none] length: 52 10.1.10.1 > 224.0.0.9) ns3::UdpHeader (length: 32 520 > 520) ns3::RipHeader (command 1 | prefix 0.0.0.0/0 Metric 16 Tag 0 Next Hop 0.0.0.0) ns3::EthernetTrailer (fcs=0)
- 0.237137 /NodeList/6/DeviceList/3/$ns3::CsmaNetDevice/TxQueue/Dequeue ns3::EthernetHeader ( length/type=0x800, source=00:00:00:00:00:13, destination=01:00:5e:00:00:09) ns3::Ipv4Header (tos 0x0 DSCP Default ECN Not-ECT ttl 1 id 0 protocol 17 offset (bytes) 0 flags [none] length: 52 10.1.10.1 > 224.0.0.9) ns3::UdpHeader (length: 32 520 > 520) ns3::RipHeader (command 1 | prefix 0.0.0.0/0 Metric 16 Tag 0 Next Hop 0.0.0.0) ns3::EthernetTrailer (fcs=0)
r 0.239249 /NodeList/3/DeviceList/2/$ns3::CsmaNetDevice/MacRx ns3::EthernetHeader ( length/type=0x800, source=00:00:00:00:00:0a, destination=01:00:5e:00:00:09) ns3::Ipv4Header (tos 0x0 DSCP Default ECN Not-ECT ttl 1 id 0 protocol 17 offset (bytes) 0 flags [none] length: 52 10.1.5.2 > 224.0.0.9) ns3::UdpHeader (length: 32 520 > 520) ns3::RipHeader (command 1 | prefix 0.0.0.0/0 Metric 16 Tag 0 Next Hop 0.0.0.0) ns3::EthernetTrailer (fcs=0)
r 0.239249 /NodeList/5/DeviceList/1/$ns3::CsmaNetDevice/MacRx ns3::EthernetHeader ( length/type=0x800, source=00:00:00:00:00:0e, destination=01:00:5e:00:00:09) ns3::Ipv4Header (tos 0x0 DSCP Default ECN Not-ECT ttl 1 id 0 protocol 17 offset (bytes) 0 flags [none] length: 52 10.1.7.2 > 224.0.0.9) ns3::UdpHeader (length: 32 520 > 520) ns3::RipHeader (command 1 | prefix 0.0.0.0/0 Metric 16 Tag 0 Next Hop 0.0.0.0) ns3::EthernetTrailer (fcs=0)
r 0.239249 /NodeList/7/DeviceList/1/$ns3::CsmaNetDevice/MacRx ns3::EthernetHeader ( length/type=0x800, source=00:00:00:00:00:0f, destination=01:00:5e:00:00:09) ns3::Ipv4Header (tos 0x0 DSCP Default ECN Not-ECT ttl 1 id 0 protocol 17 offset (bytes) 0 flags [none] length: 52 10.1.8.1 > 224.0.0.9) ns3::UdpHeader (length: 32 520 > 520) ns3::RipHeader (command 1 | prefix 0.0.0.0/0 Metric 16 Tag 0 Next Hop 0.0.0.0) ns3::EthernetTrailer (fcs=0)
r 0.239249 /NodeList/9/DeviceList/0/$ns3::CsmaNetDevice/MacRx ns3::EthernetHeader ( length/type=0x800, source=00:00:00:00:00:13, destination=01:00:5e:00:00:09) ns3::Ipv4Header (tos 0x0 DSCP Default ECN Not-ECT ttl 1 id 0 protocol 17 offset (bytes) 0 flags [none] length: 52 10.1.10.1 > 224.0.0.9) ns3::UdpHeader (length: 32 520 > 520) ns3::RipHeader (command 1 | prefix 0.0.0.0/0 Metric 16 Tag 0 Next Hop 0.0.0.0) ns3::EthernetTrailer (fcs=0)
+ 0.240249 /NodeList/7/DeviceList/1/$ns3::CsmaNetDevice/TxQueue/Enqueue ns3::EthernetHeader ( length/type=0x806, source=00:00:00:00:00:10, destination=ff:ff:ff:ff:ff:ff) ns3::ArpHeader (request source mac: 00-06-00:00:00:00:00:10 source ipv4: 10.1.8.2 dest ipv4: 10.1.8.1) Payload (size=18) ns3::EthernetTrailer (fcs=0)
- 0.240249 /NodeList/7/DeviceList/1/$ns3::CsmaNetDevice/TxQueue/Dequeue ns3::EthernetHeader ( length/type=0x806, source=00:00:00:00:00:10, destination=ff:ff:ff:ff:ff:ff) ns3::ArpHeader (request source mac: 00-06-00:00:00:00:00:10 source ipv4: 10.1.8.2 dest ipv4: 10.1.8.1) Payload (size=18) ns3::EthernetTrailer (fcs=0)
r 0.242351 /NodeList/6/DeviceList/2/$ns3::CsmaNetDevice/MacRx ns3::EthernetHeader ( length/type=0x806, source=00:00:00:00:00:10, destination=ff:ff:ff:ff:ff:ff) ns3::ArpHeader (request source mac: 00-06-00:00:00:00:00:10 source ipv4: 10.1.8.2 dest ipv4: 10.1.8.1) Payload (size=18) ns3::EthernetTrailer (fcs=0)
+ 0.242351 /NodeList/6/DeviceList/2/$ns3::CsmaNetDevice/TxQueue/Enqueue ns3::EthernetHeader ( length/type=0x806, source=00:00:00:00:00:0f, destination=00:00:00:00:00:10) ns3::ArpHeader (reply source mac: 00-06-00:00:00:00:00:0f source ipv4: 10.1.8.1 dest mac: 00-06-00:00:00:00:00:10 dest ipv4: 10.1.8.2) Payload (size=18) ns3::EthernetTrailer (fcs=0)
- 0.242351 /NodeList/6/DeviceList/2/$ns3::CsmaNetDevice/TxQueue/Dequeue ns3::EthernetHeader ( length/type=0x806, source=00:00:00:00:00:0f, destination=00:00:00:00:00:10) ns3::ArpHeader (reply source mac: 00-06-00:00:00:00:00:0f source ipv4: 10.1.8.1 dest mac: 00-06-00:00:00:00:00:10 dest ipv4: 10.1.8.2) Payload (size=18) ns3::EthernetTrailer (fcs=0)
+ 0.243249 /NodeList/3/DeviceList/2/$ns3::CsmaNetDevice/TxQueue/Enqueue ns3::EthernetHeader ( length/type=0x806, source=00:00:00:00:00:09, destination=ff:ff:ff:ff:ff:ff) ns3::ArpHeader (request source mac: 00-06-00:00:00:00:00:09 source ipv4: 10.1.5.1 dest ipv4: 10.1.5.2) Payload (size=18) ns3::EthernetTrailer (fcs=0)
- 0.243249 /NodeList/3/DeviceList/2/$ns3::CsmaNetDevice/TxQueue/Dequeue ns3::EthernetHeader ( length/type=0x806, source=00:00:00:00:00:09, destination=ff:ff:ff:ff:ff:ff) ns3::ArpHeader (request source mac: 00-06-00:00:00:00:00:09 source ipv4: 10.1.5.1 dest ipv4: 10.1.5.2) Payload (size=18) ns3::EthernetTrailer (fcs=0)
r 0.244454 /NodeList/7/DeviceList/1/$ns3::CsmaNetDevice/MacRx ns3::EthernetHeader ( length/type=0x806, source=00:00:00:00:00:0f, destination=00:00:00:00:00:10) ns3::ArpHeader (reply source mac: 00-06-00:00:00:00:00:0f source ipv4: 10.1.8.1 dest mac: 00-06-00:00:00:00:00:10 dest ipv4: 10.1.8.2) Payload (size=18) ns3::EthernetTrailer (fcs=0)
+ 0.244454 /NodeList/7/DeviceList/1/$ns3::CsmaNetDevice/TxQueue/Enqueue ns3::EthernetHeader ( length/type=0x800, source=00:00:00:00:00:10, destination=00:00:00:00:00:0f) ns3::Ipv4Header (tos 0x0 DSCP Default ECN Not-ECT ttl 255 id 0 protocol 17 offset (bytes) 0 flags [none] length: 212 10.1.8.2 > 10.1.8.1) ns3::UdpHeader (length: 192 520 > 520) ns3::RipHeader (command 2 | prefix 10.1.10.0/24 Metric 16 Tag 0 Next Hop 0.0.0.0 | prefix 10.1.7.0/24 Metric 16 Tag 0 Next Hop 0.0.0.0 | prefix 10.1.5.0/24 Metric 16 Tag 0 Next Hop 0.0.0.0 | prefix 10.1.3.0/24 Metric 2 Tag 0 Next Hop 0.0.0.0 | prefix 10.1.14.0/24 Metric 2 Tag 0 Next Hop 0.0.0.0 | prefix 10.1.13.0/24 Metric 2 Tag 0 Next Hop 0.0.0.0 | prefix 10.1.6.0/24 Metric 1 Tag 0 Next Hop 0.0.0.0 | prefix 10.1.8.0/24 Metric 16 Tag 0 Next Hop 0.0.0.0 | prefix 10.1.11.0/24 Metric 1 Tag 0 Next Hop 0.0.0.0) ns3::EthernetTrailer (fcs=0)
- 0.244454 /NodeList/7/DeviceList/1/$ns3::CsmaNetDevice/TxQueue/Dequeue ns3::EthernetHeader ( length/type=0x800, source=00:00:00:00:00:10, destination=00:00:00:00:00:0f) ns3::Ipv4Header (tos 0x0 DSCP Default ECN Not-ECT ttl 255 id 0 protocol 17 offset (bytes) 0 flags [none] length: 212 10.1.8.2 > 10.1.8.1) ns3::UdpHeader (length: 192 520 > 520) ns3::RipHeader (command 2 | prefix 10.1.10.0/24 Metric 16 Tag 0 Next Hop 0.0.0.0 | prefix 10.1.7.0/24 Metric 16 Tag 0 Next Hop 0.0.0.0 | prefix 10.1.5.0/24 Metric 16 Tag 0 Next Hop 0.0.0.0 | prefix 10.1.3.0/24 Metric 2 Tag 0 Next Hop 0.0.0.0 | prefix 10.1.14.0/24 Metric 2 Tag 0 Next Hop 0.0.0.0 | prefix 10.1.13.0/24 Metric 2 Tag 0 Next Hop 0.0.0.0 | prefix 10.1.6.0/24 Metric 1 Tag 0 Next Hop 0.0.0.0 | prefix 10.1.8.0/24 Metric 16 Tag 0 Next Hop 0.0.0.0 | prefix 10.1.11.0/24 Metric 1 Tag 0 Next Hop 0.0.0.0) ns3::EthernetTrailer (fcs=0)
+ 0.245249 /NodeList/5/DeviceList/1/$ns3::CsmaNetDevice/TxQueue/Enqueue ns3::EthernetHeader ( length/type=0x806, source=00:00:00:00:00:0d, destination=ff:ff:ff:ff:ff:ff) ns3::ArpHeader (request source mac: 00-06-00:00:00:00:00:0d source ipv4: 10.1.7.1 dest ipv4: 10.1.7.2) Payload (size=18) ns3::EthernetTrailer (fcs=0)
- 0.245249 /NodeList/5/DeviceList/1/$ns3::CsmaNetDevice/TxQueue/Dequeue ns3::EthernetHeader ( length/type=0x806, source=00:00:00:00:00:0d, destination=ff:ff:ff:ff:ff:ff) ns3::ArpHeader (request source mac: 00-06-00:00:00:00:00:0d source ipv4: 10.1.7.1 dest ipv4: 10.1.7.2) Payload (size=18) ns3::EthernetTrailer (fcs=0)
r 0.245351 /NodeList/6/DeviceList/0/$ns3::CsmaNetDevice/MacRx ns3::EthernetHeader ( length/type=0x806, source=00:00:00:00:00:09, destination=ff:ff:ff:ff:ff:ff) ns3::ArpHeader (request source mac: 00-06-00:00:00:00:00:09 source ipv4: 10.1.5.1 dest ipv4: 10.1.5.2) Payload (size=18) ns3::EthernetTrailer (fcs=0)
+ 0.245351 /NodeList/6/DeviceList/0/$ns3::CsmaNetDevice/TxQueue/Enqueue ns3::EthernetHeader ( length/type=0x806, source=00:00:00:00:00:0a, destination=00:00:00:00:00:09) ns3::ArpHeader (reply source mac: 00-06-00:00:00:00:00:0a source ipv4: 10.1.5.2 dest mac: 00-06-00:00:00:00:00:09 dest ipv4: 10.1.5.1) Payload (size=18) ns3::EthernetTrailer (fcs=0)
- 0.245351 /NodeList/6/DeviceList/0/$ns3::CsmaNetDevice/TxQueue/Dequeue ns3::EthernetHeader ( length/type=0x806, source=00:00:00:00:00:0a, destination=00:00:00:00:00:09) ns3::ArpHeader (reply source mac: 00-06-00:00:00:00:00:0a source ipv4: 10.1.5.2 dest mac: 00-06-00:00:00:00:00:09 dest ipv4: 10.1.5.1) Payload (size=18) ns3::EthernetTrailer (fcs=0)
r 0.246823 /NodeList/6/DeviceList/2/$ns3::CsmaNetDevice/MacRx ns3::EthernetHeader ( length/type=0x800, source=00:00:00:00:00:10, destination=00:00:00:00:00:0f) ns3::Ipv4Header (tos 0x0 DSCP Default ECN Not-ECT ttl 255 id 0 protocol 17 offset (bytes) 0 flags [none] length: 212 10.1.8.2 > 10.1.8.1) ns3::UdpHeader (length: 192 520 > 520) ns3::RipHeader (command 2 | prefix 10.1.10.0/24 Metric 16 Tag 0 Next Hop 0.0.0.0 | prefix 10.1.7.0/24 Metric 16 Tag 0 Next Hop 0.0.0.0 | prefix 10.1.5.0/24 Metric 16 Tag 0 Next Hop 0.0.0.0 | prefix 10.1.3.0/24 Metric 2 Tag 0 Next Hop 0.0.0.0 | prefix 10.1.14.0/24 Metric 2 Tag 0 Next Hop 0.0.0.0 | prefix 10.1.13.0/24 Metric 2 Tag 0 Next Hop 0.0.0.0 | prefix 10.1.6.0/24 Metric 1 Tag 0 Next Hop 0.0.0.0 | prefix 10.1.8.0/24 Metric 16 Tag 0 Next Hop 0.0.0.0 | prefix 10.1.11.0/24 Metric 1 Tag 0 Next Hop 0.0.0.0) ns3::EthernetTrailer (fcs=0)
r 0.247351 /NodeList/6/DeviceList/1/$ns3::CsmaNetDevice/MacRx ns3::EthernetHeader ( length/type=0x806, source=00:00:00:00:00:0d, destination=ff:ff:ff:ff:ff:ff) ns3::ArpHeader (request source mac: 00-06-00:00:00:00:00:0d source ipv4: 10.1.7.1 dest ipv4: 10.1.7.2) Payload (size=18) ns3::EthernetTrailer (fcs=0)
+ 0.247351 /NodeList/6/DeviceList/1/$ns3::CsmaNetDevice/TxQueue/Enqueue ns3::EthernetHeader ( length/type=0x806, source=00:00:00:00:00:0e, destination=00:00:00:00:00:0d) ns3::ArpHeader (reply source mac: 00-06-00:00:00:00:00:0e source ipv4: 10.1.7.2 dest mac: 00-06-00:00:00:00:00:0d dest ipv4: 10.1.7.1) Payload (size=18) ns3::EthernetTrailer (fcs=0)
- 0.247351 /NodeList/6/DeviceList/1/$ns3::CsmaNetDevice/TxQueue/Dequeue ns3::EthernetHeader ( length/type=0x806, source=00:00:00:00:00:0e, destination=00:00:00:00:00:0d) ns3::ArpHeader (reply source mac: 00-06-00:00:00:00:00:0e source ipv4: 10.1.7.2 dest mac: 00-06-00:00:00:00:00:0d dest ipv4: 10.1.7.1) Payload (size=18) ns3::EthernetTrailer (fcs=0)
r 0.247454 /NodeList/3/DeviceList/2/$ns3::CsmaNetDevice/MacRx ns3::EthernetHeader ( length/type=0x806, source=00:00:00:00:00:0a, destination=00:00:00:00:00:09) ns3::ArpHeader (reply source mac: 00-06-00:00:00:00:00:0a source ipv4: 10.1.5.2 dest mac: 00-06-00:00:00:00:00:09 dest ipv4: 10.1.5.1) Payload (size=18) ns3::EthernetTrailer (fcs=0)
+ 0.247454 /NodeList/3/DeviceList/2/$ns3::CsmaNetDevice/TxQueue/Enqueue ns3::EthernetHeader ( length/type=0x800, source=00:00:00:00:00:09, destination=00:00:00:00:00:0a) ns3::Ipv4Header (tos 0x0 DSCP Default ECN Not-ECT ttl 255 id 0 protocol 17 offset (bytes) 0 flags [none] length: 92 10.1.5.1 > 10.1.5.2) ns3::UdpHeader (length: 72 520 > 520) ns3::RipHeader (command 2 | prefix 10.1.2.0/24 Metric 1 Tag 0 Next Hop 0.0.0.0 | prefix 10.1.3.0/24 Metric 1 Tag 0 Next Hop 0.0.0.0 | prefix 10.1.5.0/24 Metric 16 Tag 0 Next Hop 0.0.0.0) ns3::EthernetTrailer (fcs=0)
- 0.247454 /NodeList/3/DeviceList/2/$ns3::CsmaNetDevice/TxQueue/Dequeue ns3::EthernetHeader ( length/type=0x800, source=00:00:00:00:00:09, destination=00:00:00:00:00:0a) ns3::Ipv4Header (tos 0x0 DSCP Default ECN Not-ECT ttl 255 id 0 protocol 17 offset (bytes) 0 flags [none] length: 92 10.1.5.1 > 10.1.5.2) ns3::UdpHeader (length: 72 520 > 520) ns3::RipHeader (command 2 | prefix 10.1.2.0/24 Metric 1 Tag 0 Next Hop 0.0.0.0 | prefix 10.1.3.0/24 Metric 1 Tag 0 Next Hop 0.0.0.0 | prefix 10.1.5.0/24 Metric 16 Tag 0 Next Hop 0.0.0.0) ns3::EthernetTrailer (fcs=0)